# Header

1046 atoms
2314 bonds

40 atom types
761 bond types

0.000000 300.000000 xlo xhi
0.000000 300.000000 ylo yhi
0.000000 300.000000 zlo zhi

Masses

1 131.200000
2 57.050000
3 128.200000
4 101.100000
5 156.200000
6 71.080000
7 115.100000
8 129.100000
9 163.200000
10 99.070000
11 113.200000
12 128.100000
13 186.200000
14 147.200000
15 87.080000
16 137.100000
17 114.100000
18 97.120000
19 103.100000
20 113.200000
21 131.200000
22 57.050000
23 128.200000
24 101.100000
25 156.200000
26 71.080000
27 115.100000
28 129.100000
29 163.200000
30 99.070000
31 113.200000
32 128.100000
33 186.200000
34 147.200000
35 87.080000
36 137.100000
37 114.100000
38 97.120000
39 103.100000
40 113.200000

Atoms

1 1 1 0 115.087 26.576 179.538
2 1 3 0 117.204 28.486 177.01
3 1 16 0 114.407 28.834 174.446
4 1 18 0 110.636 28.508 174.011
5 1 9 0 108.374 25.443 174.093
6 1 8 0 107.108 25.828 177.666
7 1 8 0 109.361 28.901 177.685
8 1 14 0 108.637 32.056 179.694
9 1 18 0 106.158 29.784 181.486
10 1 4 0 104.184 29.84 178.228
11 1 2 0 101.839 32.746 177.468
12 1 15 0 100.518 35.063 180.189
13 1 3 0 102.11 33.359 183.201
14 1 15 0 101.996 36.646 185.126
15 1 18 0 100.73 37.956 188.472
16 1 9 0 102.634 40.132 190.952
17 1 17 0 103.264 40.304 194.706
18 1 1 0 102.137 36.664 194.708
19 1 15 0 100.65 35.194 191.523
20 1 5 0 102.984 32.325 192.44
21 1 2 0 103.562 32.812 196.174
22 1 6 0 106.692 34.887 195.531
23 1 16 0 107.386 32.258 192.863
24 1 18 0 108.602 32.116 189.255
25 1 2 0 105.746 34.37 188.122
26 1 6 0 106.939 37.418 186.17
27 1 10 0 108.69 40.79 185.891
28 1 11 0 109.326 40.823 182.134
29 1 11 0 110.556 42.089 178.758
30 1 15 0 112.113 44.909 176.725
31 1 18 0 108.501 43.914 176.031
32 1 12 0 106.402 47.092 175.976
33 1 15 0 103.718 44.388 175.891
34 1 15 0 101.176 41.551 175.863
35 1 6 0 98.238 39.804 177.546
36 1 20 0 95.733 42.353 176.227
37 1 17 0 93.789 42.439 172.95
38 1 3 0 93.868 38.688 173.61
39 1 17 0 92.675 35.611 175.513
40 1 17 0 93.428 33.326 178.467
41 1 18 0 93.464 31.204 175.303
42 1 2 0 96.923 29.666 175.726
43 1 15 0 100.115 30.225 173.72
44 1 17 0 98.86 26.77 172.719
45 1 15 0 101.321 25.541 175.355
46 1 2 0 101.202 22.497 173.067
47 1 17 0 101.179 21.969 169.293
48 1 17 0 101.462 18.429 170.673
49 1 12 0 99.805 18.245 174.099
50 1 2 0 97.696 15.473 172.555
51 1 17 0 97.111 11.789 173.33
52 1 15 0 96.695 8.648 175.446
53 1 15 0 94.794 5.867 177.225
54 1 10 0 98.36 4.719 176.535
55 1 4 0 97.648 5.281 172.836
56 1 6 0 96.397 1.977 174.26
57 1 17 0 93.958 0.249 176.623
58 1 10 0 90.806 2.136 175.615
59 1 11 0 88.091 0.001 174.005
60 1 15 0 85.757 0.434 176.984
61 1 18 0 88.672 1.15 179.33
62 1 12 0 92.357 2.016 179.761
63 1 15 0 94.188 3.837 182.561
64 1 16 0 91.832 6.831 182.575
65 1 15 0 93.671 10.14 183.007
66 1 1 0 90.032 10.449 184.093
67 1 15 0 86.364 9.463 184.402
68 1 11 0 84.159 8.429 187.331
69 1 17 0 80.48 8.808 188.246
70 1 7 0 79.667 11.963 190.222
71 1 1 0 76.74 14.126 189.097
72 1 11 0 75.408 15.802 185.946
73 1 7 0 75.424 16.62 182.225
74 1 12 0 72.304 18.516 181.136
75 1 12 0 70.39 21.35 182.817
76 1 15 0 72.199 23.984 184.892
77 1 14 0 74.381 20.938 184.201
78 1 1 0 75.979 19.796 187.466
79 1 11 0 79.584 19.204 188.55
80 1 7 0 81.05 18.365 191.965
81 1 4 0 77.994 20.027 193.519
82 1 6 0 80.581 22.797 193.904
83 1 2 0 83.528 24.655 192.361
84 1 4 0 80.78 23.948 189.819
85 1 5 0 80.302 27.712 190.158
86 1 6 0 78.298 29.254 187.307
87 1 12 0 75.137 31.064 188.424
88 1 18 0 74.205 28.263 190.833
89 1 11 0 74.957 25.52 193.368
90 1 12 0 73.593 21.962 193.317
91 1 12 0 70.319 22.995 194.967
92 1 12 0 66.569 22.354 195.168
93 1 12 0 63.04 21.843 193.825
94 1 12 0 63.522 21.39 190.073
95 1 12 0 60.221 22.906 191.222
96 1 12 0 62.18 26.159 191.522
97 1 12 0 60.127 26.295 188.316
98 1 12 0 63.861 25.806 187.739
99 1 12 0 66.895 27.633 189.147
100 1 12 0 67.536 24.185 190.636
101 1 12 0 70.784 23.696 188.704
102 1 6 0 70.462 19.924 188.277
103 1 15 0 72.671 17.648 190.386
104 1 11 0 74.323 16.574 193.647
105 1 18 0 77.065 13.944 193.945
106 1 15 0 75.661 10.457 193.327
107 1 11 0 75.51 8.813 189.893
108 1 17 0 73.77 12.151 190.484
109 1 20 0 70.839 13.562 188.501
110 1 12 0 69.261 15.348 185.528
111 1 4 0 67.305 12.113 185.052
112 1 10 0 65.327 10.416 187.83
113 1 15 0 62.878 13.229 188.613
114 1 15 0 61.993 16.447 190.45
115 1 4 0 59.021 14.142 191.051
116 1 6 0 55.395 15.233 191.475
117 1 6 0 54.734 12.001 189.568
118 1 2 0 53.609 13.288 186.162
119 1 15 0 52.335 15.982 183.789
120 1 6 0 49.779 13.157 183.752
121 1 20 0 46.62 11.603 185.211
122 1 10 0 46.714 11.218 181.421
123 1 15 0 48.373 12.726 178.341
124 1 18 0 50.116 10.249 176.029
125 1 1 0 53.855 10.395 175.31
126 1 1 0 54.609 9.958 179.019
127 1 12 0 51.392 9.397 180.982
128 1 15 0 51.071 5.807 179.75
129 1 18 0 50.853 3.374 176.827
130 1 3 0 52.978 0.739 175.077
131 1 6 0 54.537 0.53 171.608
132 1 11 0 57.74 2.105 172.942
133 1 12 0 57.372 2.26 176.732
134 1 15 0 60.306 0.64 178.545
135 1 4 0 60.21 1.771 182.181
136 1 11 0 63.853 2.561 182.97
137 1 15 0 62.958 6.24 182.538
138 1 15 0 64.741 9.501 183.372
139 1 4 0 61.247 10.152 182.002
140 1 15 0 60.626 10.798 178.299
141 1 1 0 57.384 12.705 177.698
142 1 9 0 57.145 12.082 173.947
143 1 11 0 59.209 12.314 170.753
144 1 7 0 56.218 11.106 168.725
145 1 15 0 53.246 8.83 168.015
146 1 14 0 52.307 11.611 170.445
147 1 12 0 48.664 12.685 170.746
148 1 5 0 47.779 11.471 167.244
149 1 15 0 44.889 9.288 168.426
150 1 18 0 45.328 7.312 171.654
151 1 17 0 46.821 6.207 174.98
152 1 17 0 45.035 7.645 178.024
153 1 20 0 41.726 8.317 179.787
154 1 11 0 38.542 6.931 178.218
155 1 2 0 37.739 8.73 181.48
156 1 20 0 36.653 10.533 178.305
157 1 18 0 38.684 13.754 178.161
158 1 15 0 42.117 14.232 179.744
159 1 12 0 42.481 11.9 182.735
160 1 15 0 39.376 13.004 184.649
161 1 2 0 40.762 16.307 183.348
162 1 15 0 43.854 14.846 185.029
163 1 20 0 43.566 17.685 187.554
164 1 18 0 43.783 14.191 189.058
165 1 11 0 45.871 15.182 192.087
166 1 18 0 43.517 16.432 194.81
167 1 12 0 42.668 14.232 197.803
168 1 15 0 46.109 15.108 199.185
169 1 5 0 48.106 16.916 201.88
170 1 12 0 49.162 13.263 201.639
171 1 15 0 46.674 11.808 204.131
172 1 12 0 49.499 9.252 204.196
173 1 12 0 46.879 6.486 204.24
174 1 12 0 45.8 4.757 201.021
175 1 15 0 44.188 4.238 197.609
176 1 12 0 42.174 1.506 195.877
177 1 15 0 40.309 2.025 199.159
178 1 12 0 40.161 5.782 199.772
179 1 3 0 37.275 8.247 200.101
180 1 17 0 33.682 9.49 199.856
181 1 7 0 33.574 6.467 202.173
182 1 18 0 30.681 8.828 202.927
183 1 17 0 27.352 6.976 202.909
184 1 1 0 24.229 7.944 204.864
185 1 2 0 21.871 10.244 206.779
186 1 4 0 21.911 14.051 206.633
187 1 17 0 23.318 16.966 204.626
188 1 14 0 19.74 15.961 203.789
189 1 15 0 18.364 18.835 205.98
190 1 12 0 14.77 17.789 205.064
191 1 7 0 15.637 14.123 205.91
192 1 20 0 17.115 15.143 209.333
193 1 17 0 13.947 17.178 210.121
194 1 12 0 11.738 14.191 209.075
195 1 11 0 13.952 11.85 211.216
196 1 19 0 13.642 14.199 214.268
197 1 15 0 9.834 14.454 213.685
198 1 13 0 9.532 10.63 213.373
199 1 20 0 11.688 9.997 216.525
200 1 15 0 9.465 12.514 218.429
201 1 1 0 6.393 10.345 217.485
202 1 11 0 7.959 7.115 218.946
203 1 17 0 7.452 5.851 222.546
204 1 15 0 10.497 6.46 224.885
205 1 15 0 11.566 2.745 224.67
206 1 12 0 11.442 2.957 220.828
207 1 12 0 13.286 6.351 220.945
208 1 17 0 16.078 4.746 223.058
209 1 4 0 16.182 1.72 220.66
210 1 10 0 16.477 4.071 217.602
211 1 1 0 19.126 6.233 219.364
212 1 7 0 21.2 3.098 220.287
213 1 17 0 21.08 2.065 216.579
214 1 20 0 22.037 5.623 215.369
215 1 11 0 24.874 5.857 217.973
216 1 15 0 26.196 2.416 216.787
217 1 20 0 26.524 3.813 213.181
218 1 11 0 28.216 7.156 214.11
219 1 17 0 32.041 7.42 214.046
220 1 7 0 33.788 7.589 217.494
221 1 7 0 34.92 11.213 216.797
222 1 10 0 31.296 12.257 216.015
223 1 11 0 30.279 10.437 219.256
224 1 3 0 33.08 12.31 221.196
225 1 9 0 32.023 15.676 219.657
226 1 4 0 28.287 14.944 220.298
227 1 3 0 29.076 13.894 223.918
228 1 11 0 31.209 17.059 224.45
229 1 3 0 28.419 19.24 222.897
230 1 20 0 25.729 17.622 225.131
231 1 8 0 28.096 17.983 228.157
232 1 4 0 28.538 21.706 227.246
233 1 11 0 24.696 22.113 227.078
234 1 4 0 24.077 20.171 230.384
235 1 17 0 24.405 17.685 233.253
236 1 4 0 23.204 16.122 236.513
237 1 18 0 22.692 12.608 237.893
238 1 14 0 19.203 14.099 238.229
239 1 20 0 17.346 15.313 241.326
240 1 15 0 16.274 17.613 238.485
241 1 18 0 19.034 19.329 236.498
242 1 18 0 16.838 19.962 233.45
243 1 11 0 19.427 22.679 234.102
244 1 18 0 15.912 24.084 234.536
245 1 6 0 14.204 22.961 231.321
246 1 20 0 15.999 26.016 229.921
247 1 6 0 18.722 25.021 227.45
248 1 15 0 17.153 24.037 224.12
249 1 18 0 14.587 26.848 224.281
250 1 20 0 14.801 30.57 225.069
251 1 18 0 12.974 31.017 228.382
252 1 17 0 10.916 32.609 225.598
253 1 5 0 9.09 35.894 226.225
254 1 7 0 7.14 36.094 229.492
255 1 7 0 5.657 39.189 227.836
256 1 4 0 8.16 40.424 230.43
257 1 12 0 6.235 42.96 232.525
258 1 20 0 6.526 46.757 232.426
259 1 11 0 3.074 45.513 233.452
260 1 17 0 0.002 47.506 232.403
261 1 20 0 1.624 48.777 229.2
262 1 7 0 4.617 47.068 227.574
263 1 15 0 7.062 49.98 227.335
264 1 10 0 9.944 50.509 224.901
265 1 14 0 12.877 48.622 223.369
266 1 15 0 9.978 46.207 223.893
267 1 15 0 9.249 44.228 227.067
268 1 15 0 11.252 41.969 224.743
269 1 18 0 13.965 42.227 222.081
270 1 20 0 13.811 38.427 222.302
271 1 4 0 11.388 36.092 220.515
272 1 17 0 12.825 33.803 217.83
273 1 7 0 13.723 37.257 216.496
274 1 18 0 16.568 37.549 219.014
275 1 8 0 16.62 40.056 216.146
276 1 17 0 13.032 41.296 215.836
277 1 4 0 12.679 44.607 213.986
278 1 7 0 11.952 41.489 211.922
279 1 17 0 10.825 38.111 210.566
280 1 11 0 8.822 38.62 207.365
281 1 11 0 11.582 36.955 205.336
282 1 9 0 9.166 34.686 203.459
283 1 12 0 8.378 31.484 201.55
284 1 17 0 5.086 33.337 201.063
285 1 13 0 6.222 35.657 198.263
286 1 15 0 9.999 35.178 198.417
287 1 18 0 12.822 36.578 200.56
288 1 12 0 16.008 38.39 201.598
289 1 18 0 19.341 40.132 200.983
290 1 16 0 19.753 36.349 200.778
291 1 15 0 23.224 37.515 199.726
292 1 20 0 24.467 33.948 200.227
293 1 18 0 25.751 30.432 200.933
294 1 20 0 24.902 27.835 203.589
295 1 15 0 22.643 25.28 201.89
296 1 12 0 19.788 22.954 200.916
297 1 18 0 16.61 25.019 201.303
298 1 20 0 13.278 25.065 199.458
299 1 9 0 14.493 28.532 198.449
300 1 7 0 15.854 31.781 196.996
301 1 17 0 13.104 31.796 194.361
302 1 20 0 13.956 28.094 194.074
303 1 4 0 13.457 26.261 190.772
304 1 7 0 13.995 23.385 193.213
305 1 6 0 17.698 22.507 193.375
306 1 15 0 21.157 22.799 191.802
307 1 12 0 21.595 19.093 191.037
308 1 5 0 19.025 20.524 188.616
309 1 15 0 17.181 18.409 186.039
310 1 3 0 18.353 15.638 183.701
311 1 15 0 20.993 12.894 183.796
312 1 6 0 23.898 10.487 184.328
313 1 8 0 23.86 9.388 180.68
314 1 18 0 23.193 6.604 183.193
315 1 16 0 25.074 5.112 186.151
316 1 10 0 28.649 4.986 184.838
317 1 17 0 27.837 1.468 183.622
318 1 15 0 25.107 2.512 181.178
319 1 15 0 26.576 1.47 177.82
320 1 18 0 26.184 5.258 177.719
321 1 17 0 22.639 6.162 178.782
322 1 11 0 22.107 5.37 175.093
323 1 20 0 19.282 4.384 177.45
324 1 18 0 19.323 1.908 174.554
325 1 10 0 15.754 3.24 174.534
326 1 12 0 14.035 1.863 171.425
327 1 3 0 15.477 0.26 168.284
328 1 12 0 13.522 2.249 165.688
329 1 14 0 10.093 3.437 166.849
330 1 17 0 8.529 3.755 163.389
331 1 17 0 6.158 2.132 165.891
332 1 2 0 6.368 1.815 169.683
333 1 17 0 7.884 5.297 169.995
334 1 15 0 4.094 5.251 170.38
335 1 4 0 4.143 7.786 167.537
336 1 3 0 3.189 10.924 169.476
337 1 9 0 3.975 12.675 166.184
338 1 3 0 2.563 10.972 163.082
339 1 3 0 3.894 14.5 162.538
340 1 11 0 4.578 13.409 158.952
341 1 18 0 2.133 11.249 156.985
342 1 15 0 0.035 14.306 156.108
343 1 8 0 3.074 16.601 156.197
344 1 17 0 6.094 18.842 156.813
345 1 18 0 9.55 18.523 158.385
346 1 17 0 10.275 16.067 161.207
347 1 9 0 12.563 14.174 163.593
348 1 11 0 13.316 17.859 162.985
349 1 15 0 13.264 21.626 163.56
350 1 16 0 15.975 24.278 163.92
351 1 15 0 16.101 25.53 167.517
352 1 11 0 16.489 23.825 170.902
353 1 15 0 16.997 25.529 174.272
354 1 15 0 19.508 22.696 173.838
355 1 15 0 16.784 20.034 173.845
356 1 16 0 18.399 16.69 172.995
357 1 15 0 21.442 14.435 172.573
358 1 14 0 23.545 13.705 169.481
359 1 14 0 20.673 15.791 168.097
360 1 12 0 19.313 19.283 167.406
361 1 18 0 20.879 21.926 165.151
362 1 3 0 21.849 20.804 161.643
363 1 3 0 21.245 24.514 162.263
364 1 5 0 20.947 23.345 158.649
365 1 15 0 21.954 26.999 158.266
366 1 17 0 20.083 28.381 161.283
367 1 1 0 18.309 31.67 160.538
368 1 2 0 17.914 31.513 164.325
369 1 17 0 19.09 34.734 162.667
370 1 8 0 18.514 37.671 165.026
371 1 9 0 20.446 38.236 161.79
372 1 17 0 23.604 36.601 163.155
373 1 15 0 23.805 32.796 163.192
374 1 16 0 22.207 31.514 159.98
375 1 16 0 23.834 34.781 158.883
376 1 16 0 26.733 32.617 160.08
377 1 16 0 26.39 33.144 156.321
378 1 15 0 24.449 35.32 153.87
379 1 11 0 23.829 35.756 150.136
380 1 16 0 27.105 33.821 150.343
381 1 16 0 29.095 36.985 151.08
382 1 18 0 26.658 39.914 151.1
383 1 11 0 30.15 41.244 150.353
384 1 16 0 33.649 42.503 149.525
385 1 17 0 37.349 42.306 148.637
386 1 4 0 39.363 42.416 151.868
387 1 4 0 42.589 40.392 151.745
388 1 15 0 45.061 37.729 150.597
389 1 9 0 43.284 38.334 147.282
390 1 14 0 45.855 35.522 147.344
391 1 15 0 46.596 38.609 145.236
392 1 17 0 47.932 40.676 148.144
393 1 4 0 50.972 39.997 150.338
394 1 15 0 54.359 41.499 151.221
395 1 5 0 54.98 39.983 154.661
396 1 18 0 55.03 40.768 158.389
397 1 15 0 51.264 41.098 157.918
398 1 2 0 52.277 42.96 161.084
399 1 4 0 52.502 39.554 162.778
400 1 7 0 55.608 37.36 162.548
401 1 11 0 57.253 35.648 165.529
402 1 17 0 54.034 36.972 167.08
403 1 3 0 52.545 33.991 168.926
404 1 15 0 49.89 34.253 171.647
405 1 17 0 53.196 34.547 173.52
406 1 12 0 50.583 32.833 175.7
407 1 17 0 49.233 36.037 177.259
408 1 10 0 46.907 39.029 176.864
409 1 14 0 44.621 39.344 179.895
410 1 17 0 42.695 39.634 183.17
411 1 17 0 41.386 37.257 185.846
412 1 4 0 37.902 36.527 184.488
413 1 20 0 36.629 35.499 187.928
414 1 4 0 38.814 32.569 186.854
415 1 16 0 36.513 29.646 187.681
416 1 18 0 35.482 28.741 191.234
417 1 17 0 31.992 29.432 192.597
418 1 6 0 32.958 29.831 196.261
419 1 2 0 32.979 33.326 197.781
420 1 18 0 29.62 31.527 197.755
421 1 4 0 31.378 29.88 200.707
422 1 15 0 35.112 30.434 201.219
423 1 6 0 35.93 32.04 204.576
424 1 4 0 36.87 33.14 208.101
425 1 15 0 39.9 31.509 209.736
426 1 4 0 41.167 33.524 212.711
427 1 15 0 40.678 32.865 216.431
428 1 4 0 36.876 32.993 216.663
429 1 15 0 37.664 34.099 220.223
430 1 15 0 34.008 34.928 219.546
431 1 17 0 32.404 32.962 222.388
432 1 2 0 34.811 30.436 220.856
433 1 17 0 36.934 29.315 223.815
434 1 4 0 35.98 30.002 227.439
435 1 18 0 34.827 26.65 226.045
436 1 11 0 32.414 25.298 228.666
437 1 15 0 34.145 22.349 230.346
438 1 15 0 33.363 22.838 234.043
439 1 17 0 31.242 21.591 236.952
440 1 15 0 34.471 19.584 236.696
441 1 15 0 34.594 23.125 238.097
442 1 1 0 37.756 25.376 238.472
443 1 17 0 38.221 26.611 234.845
444 1 18 0 38.71 30.471 235.053
445 1 3 0 36.735 30.998 231.754
446 1 15 0 33.65 29.483 233.547
447 1 11 0 34.213 31.277 236.903
448 1 4 0 34.458 34.74 235.181
449 1 7 0 31.57 34.451 232.634
450 1 18 0 29.327 37.581 233.224
451 1 3 0 26.187 35.369 232.737
452 1 11 0 27.287 33.058 235.591
453 1 11 0 28.567 35.894 237.877
454 1 3 0 25.11 37.621 237.612
455 1 17 0 23.434 34.26 238.504
456 1 20 0 24.925 33.019 241.855
457 1 18 0 22.72 29.804 241.798
458 1 1 0 24.126 28.918 238.298
459 1 13 0 27.748 29.816 239.272
460 1 11 0 27.31 27.507 242.321
461 1 3 0 25.933 24.82 239.876
462 1 15 0 29.191 24.899 237.764
463 1 11 0 31.144 24.631 241.075
464 1 5 0 28.857 21.674 242.195
465 1 11 0 28.177 23.814 245.357
466 1 16 0 24.468 24.59 244.555
467 1 3 0 23.385 23.066 247.95
468 1 9 0 24.638 26.422 249.391
469 1 15 0 22.561 28.524 246.897
470 1 7 0 19.889 29.514 249.483
471 1 6 0 22.648 30.777 251.876
472 1 11 0 24.703 32.735 249.256
473 1 15 0 22.252 33.926 246.499
474 1 2 0 21.218 36.963 248.64
475 1 4 0 24.74 38.491 248.1
476 1 18 0 25.936 39.847 244.671
477 1 13 0 29.149 38.28 243.237
478 1 20 0 31.045 41.593 243.856
479 1 8 0 30.517 41.183 247.666
480 1 11 0 30.376 37.331 247.685
481 1 20 0 34.043 36.951 246.562
482 1 9 0 35.33 39.064 249.529
483 1 11 0 33.711 36.721 252.165
484 1 7 0 36.122 35.093 254.676
485 1 7 0 36.08 31.404 255.802
486 1 8 0 34.324 32.42 259.09
487 1 4 0 31.656 34.431 257.182
488 1 11 0 30.991 31.42 254.906
489 1 8 0 30.644 29.277 258.107
490 1 3 0 28.258 31.893 259.689
491 1 3 0 26.164 31.783 256.418
492 1 2 0 25.85 27.936 256.876
493 1 10 0 28.739 26.638 254.646
494 1 11 0 29.743 24.411 257.622
495 1 6 0 31.71 21.945 255.412
496 1 11 0 35.446 22.946 255.412
497 1 2 0 35.885 21.307 251.942
498 1 6 0 33.13 23.6 250.535
499 1 5 0 34.601 26.776 252.216
500 1 5 0 38.131 26.023 250.868
501 1 3 0 36.538 25.425 247.412
502 1 11 0 34.631 28.777 247.528
503 1 11 0 37.771 30.708 248.667
504 1 3 0 39.779 29.152 245.757
505 1 6 0 37.001 30.123 243.277
506 1 14 0 36.782 33.644 244.823
507 1 2 0 40.576 34.211 244.464
508 1 20 0 40.288 33.408 240.69
509 1 10 0 37.345 35.879 240.294
510 1 20 0 39.217 38.548 242.385
511 1 7 0 42.372 38.154 240.189
512 1 9 0 40.281 38.609 236.982
513 1 3 0 38.283 41.508 238.597
514 1 8 0 41.47 43.384 239.668
515 1 5 0 42.974 43.019 236.128
516 1 7 0 39.678 44.428 234.591
517 1 11 0 39.429 41.053 232.689
518 1 20 0 35.716 40.609 233.657
519 1 7 0 33.236 42.092 231.135
520 1 5 0 31.435 45.265 232.383
521 1 15 0 28.197 43.304 231.638
522 1 6 0 28.944 41.234 234.851
523 1 9 0 28.346 44.239 237.208
524 2 1 0 254.16 172.331 182.838
525 2 3 0 254.455 171.166 179.223
526 2 16 0 258.145 170.432 179.822
527 2 18 0 260.823 172.348 177.905
528 2 9 0 260.859 175.887 176.494
529 2 8 0 261.035 178.679 179.081
530 2 8 0 258.543 178.068 181.898
531 2 14 0 259.985 174.665 180.974
532 2 18 0 261.69 173.182 184.041
533 2 4 0 260.897 173.551 187.749
534 2 2 0 259.413 173.284 191.248
535 2 15 0 257.908 171.67 194.353
536 2 3 0 260.6 169.831 192.383
537 2 15 0 259.846 166.607 190.498
538 2 18 0 257.773 163.416 190.692
539 2 9 0 256.14 166.757 191.519
540 2 17 0 254.129 169.235 193.599
541 2 1 0 251.311 168.234 191.237
542 2 15 0 247.621 168.212 192.183
543 2 5 0 245.431 165.323 191.013
544 2 2 0 248.18 162.913 189.942
545 2 6 0 251.139 161.502 187.999
546 2 16 0 254.365 163.221 186.924
547 2 18 0 253.801 166.759 188.219
548 2 2 0 254.966 170.004 189.841
549 2 6 0 253.08 172.466 187.628
550 2 10 0 250.118 171.189 185.6
551 2 11 0 246.318 171.136 185.88
552 2 11 0 245.337 167.707 184.542
553 2 15 0 242.273 169.919 184.059
554 2 18 0 244.583 169.626 181.043
555 2 12 0 243.953 172.048 178.17
556 2 15 0 240.714 170.107 177.663
557 2 15 0 238.075 172.848 177.451
558 2 6 0 236.655 172.139 173.986
559 2 20 0 238.588 168.858 174.091
560 2 17 0 241.094 166.357 175.498
561 2 3 0 244.799 165.471 175.599
562 2 17 0 246.912 164.342 178.562
563 2 17 0 248.869 162.642 175.769
564 2 18 0 250.457 166.001 176.615
565 2 2 0 251.502 166.422 172.976
566 2 15 0 249.282 164.288 170.732
567 2 17 0 248.286 160.919 169.258
568 2 15 0 244.635 161.98 169.499
569 2 2 0 243.753 160.393 166.149
570 2 17 0 241.354 162.998 167.556
571 2 17 0 240.36 163.144 163.881
572 2 12 0 236.882 161.611 164.161
573 2 2 0 238.083 161.158 160.573
574 2 17 0 239.858 158.205 162.201
575 2 15 0 239.331 158.083 165.972
576 2 15 0 241.077 154.78 165.228
577 2 10 0 239.144 153.945 168.404
578 2 4 0 242.367 152.189 169.425
579 2 6 0 244.399 155.37 169.94
580 2 17 0 241.717 154.406 172.466
581 2 10 0 245.173 152.861 172.892
582 2 11 0 248.699 153.64 171.677
583 2 15 0 250.214 151.085 174.062
584 2 18 0 253.2 153.079 175.338
585 2 12 0 255.963 151.621 177.518
586 2 15 0 254.934 148.097 176.498
587 2 16 0 251.962 146.509 178.274
588 2 15 0 249.179 147.788 176.009
589 2 1 0 246.926 144.724 175.775
590 2 15 0 250.213 143.268 174.512
591 2 11 0 249.603 143.373 170.753
592 2 17 0 252.318 140.736 171.181
593 2 7 0 254.694 141.603 168.332
594 2 1 0 256.692 141.832 165.096
595 2 11 0 259.27 139.028 165.206
596 2 7 0 259.29 136.803 168.298
597 2 12 0 259.029 134.263 165.471
598 2 12 0 260.295 130.742 164.749
599 2 15 0 259.944 130.34 160.977
600 2 14 0 256.234 130.313 160.106
601 2 1 0 256.428 129.9 156.323
602 2 11 0 257.109 128.447 152.867
603 2 7 0 253.381 127.687 153.059
604 2 4 0 251.279 127.61 149.882
605 2 6 0 249.905 129.973 152.537
606 2 2 0 249.757 132.764 149.949
607 2 4 0 249.211 130.196 147.188
608 2 5 0 246.828 128.086 145.095
609 2 6 0 247.883 129.746 141.831
610 2 12 0 246.195 133.037 142.745
611 2 18 0 245.955 133.988 146.426
612 2 11 0 244.819 136.408 149.141
613 2 12 0 245.115 140.073 150.14
614 2 12 0 246.319 142.19 153.07
615 2 12 0 248.214 140.193 155.704
616 2 12 0 248.933 138.185 158.862
617 2 12 0 248.225 141.703 160.142
618 2 12 0 245.96 143.152 157.444
619 2 12 0 243.01 145.488 158.037
620 2 12 0 245.068 147.489 155.533
621 2 12 0 248.145 146.858 157.69
622 2 12 0 250.432 148.974 159.882
623 2 12 0 248.119 149.906 162.764
624 2 12 0 246.557 147.795 165.523
625 2 6 0 243.364 147.601 163.455
626 2 15 0 240.086 145.682 163.155
627 2 11 0 238.841 148.967 161.679
628 2 18 0 241.501 151.26 163.156
629 2 15 0 244.074 151.551 160.362
630 2 11 0 245.989 153.666 162.888
631 2 17 0 246.368 156.817 164.996
632 2 20 0 250.071 156.746 165.887
633 2 12 0 253.412 155.462 164.581
634 2 4 0 255.462 152.584 166.003
635 2 10 0 253.336 149.675 167.241
636 2 15 0 254.352 146.395 168.891
637 2 15 0 257.724 146.049 167.154
638 2 4 0 258.537 147.013 163.558
639 2 6 0 262.31 146.505 163.432
640 2 6 0 265.518 148.555 163.581
641 2 2 0 265.823 149.667 167.213
642 2 15 0 265.431 153.443 167.541
643 2 6 0 262.07 152.916 165.827
644 2 20 0 261.351 151.288 169.196
645 2 10 0 258.305 150.528 171.356
646 2 15 0 259.116 154.124 172.318
647 2 18 0 259.294 157.561 170.685
648 2 1 0 258.502 160.756 168.764
649 2 1 0 261.359 161.175 166.279
650 2 12 0 261.693 157.924 164.32
651 2 15 0 258.006 157.95 163.358
652 2 18 0 258.834 154.863 161.283
653 2 3 0 255.138 155.591 160.709
654 2 6 0 256.752 156.21 157.313
655 2 11 0 253.287 154.884 156.448
656 2 12 0 250.379 155.193 158.893
657 2 15 0 247.497 156.726 156.929
658 2 4 0 250.488 158.431 155.298
659 2 11 0 253.822 159.5 156.804
660 2 15 0 257.425 160.357 157.696
661 2 15 0 260.205 162.943 158.011
662 2 4 0 262.843 164.294 155.615
663 2 15 0 266.13 164.54 153.705
664 2 1 0 267.343 165.178 150.15
665 2 9 0 265.665 167.637 147.772
666 2 11 0 263.721 170.767 148.736
667 2 7 0 260.321 171.443 147.154
668 2 15 0 260.156 173.987 144.323
669 2 14 0 257.543 175.931 146.3
670 2 12 0 256.757 177.668 149.599
671 2 5 0 253.738 175.612 150.681
672 2 15 0 253.847 173.228 153.651
673 2 18 0 250.596 173.564 155.609
674 2 17 0 249.638 175.796 158.544
675 2 17 0 248.771 179.335 159.654
676 2 20 0 247.196 182.396 158.019
677 2 11 0 246.414 184.653 155.051
678 2 2 0 242.747 185.47 154.414
679 2 20 0 240.271 183.146 152.686
680 2 18 0 236.494 182.775 153.009
681 2 15 0 236.441 181.251 149.517
682 2 12 0 235.635 178.434 147.082
683 2 15 0 239.181 177.877 145.807
684 2 2 0 238.662 180.638 143.233
685 2 15 0 238.779 178.096 140.397
686 2 20 0 241.94 178.272 138.279
687 2 18 0 242.284 180.079 134.941
688 2 11 0 241.41 181.276 131.432
689 2 18 0 244.229 183.838 131.443
690 2 12 0 243.536 182.201 128.074
691 2 15 0 239.997 183.48 127.475
692 2 5 0 236.595 184.246 129.01
693 2 12 0 237.943 185.578 132.315
694 2 15 0 241.397 186.94 133.165
695 2 12 0 240.878 189.835 130.742
696 2 12 0 238.231 191.674 128.71
697 2 12 0 235.44 189.154 128.095
698 2 15 0 233.414 191.447 130.365
699 2 12 0 230.029 190.398 128.964
700 2 15 0 229.968 188.066 125.951
701 2 12 0 230.953 185.112 128.148
702 2 3 0 228.684 182.126 128.814
703 2 17 0 226.474 184.884 130.238
704 2 7 0 228.029 182.975 133.146
705 2 18 0 225.532 180.494 134.606
706 2 17 0 222.751 183.069 134.996
707 2 1 0 219.974 185.628 134.495
708 2 2 0 222.842 186.866 136.678
709 2 4 0 226.249 187.687 138.172
710 2 17 0 226.549 189.083 141.705
711 2 14 0 225.662 191.727 139.108
712 2 15 0 222.553 189.587 139.95
713 2 12 0 220.816 192.71 141.393
714 2 7 0 221.77 194.689 138.218
715 2 20 0 220.358 191.915 135.926
716 2 17 0 217.076 191.896 137.932
717 2 12 0 216.886 195.744 137.708
718 2 11 0 217.647 195.525 133.922
719 2 19 0 214.87 192.885 133.424
720 2 15 0 212.45 195.034 135.528
721 2 13 0 213.355 198.188 133.516
722 2 20 0 213.004 196.369 130.116
723 2 15 0 209.559 195.073 131.279
724 2 1 0 208.486 198.756 131.84
725 2 11 0 209.437 199.804 128.231
726 2 17 0 207.03 199.803 125.227
727 2 15 0 207.55 196.83 122.777
728 2 15 0 209.352 199.096 120.208
729 2 12 0 211.716 200.326 122.987
730 2 12 0 212.15 196.695 124.239
731 2 17 0 213.167 195.607 120.687
732 2 4 0 215.532 198.648 120.41
733 2 10 0 217.173 197.764 123.801
734 2 1 0 217.41 194.042 122.855
735 2 7 0 219.054 194.918 119.462
736 2 17 0 221.633 197.035 121.386
737 2 20 0 222.254 194.236 123.996
738 2 11 0 222.542 191.57 121.222
739 2 15 0 225.093 193.822 119.374
740 2 20 0 227.343 193.824 122.537
741 2 11 0 227.151 190.04 123.27
742 2 17 0 229.881 187.712 121.916
743 2 7 0 228.85 185.419 118.976
744 2 7 0 229.247 182.295 121.209
745 2 10 0 226.899 183.817 123.856
746 2 11 0 224.493 184.645 120.962
747 2 3 0 224.794 180.994 119.656
748 2 9 0 224.226 179.585 123.194
749 2 4 0 221.297 182.018 123.834
750 2 3 0 219.758 181.12 120.419
751 2 11 0 220.184 177.357 121.132
752 2 3 0 218.666 177.819 124.657
753 2 20 0 215.663 179.782 123.25
754 2 8 0 215.308 177.141 120.46
755 2 4 0 215.324 174.404 123.18
756 2 11 0 212.572 176.316 125.11
757 2 4 0 210.439 176.99 121.935
758 2 17 0 211.3 175.069 118.759
759 2 4 0 211.031 174.348 115.028
760 2 18 0 210.898 177.15 112.448
761 2 14 0 213.143 180.223 112.284
762 2 20 0 212.063 183.873 112.463
763 2 15 0 211.607 184.229 116.229
764 2 18 0 208.881 182.06 117.773
765 2 18 0 211.161 179.867 115.651
766 2 11 0 214.178 181.586 117.222
767 2 18 0 216.625 182.138 114.355
768 2 6 0 217.173 178.427 113.69
769 2 20 0 219.941 179.029 116.238
770 2 6 0 223.499 177.699 115.956
771 2 15 0 227.185 178.663 115.885
772 2 18 0 230.915 179.39 116.155
773 2 20 0 231.315 182.891 114.704
774 2 18 0 228.831 185.057 112.792
775 2 17 0 228.911 188.832 112.286
776 2 5 0 229.919 188.526 108.624
777 2 7 0 233.125 188.088 110.636
778 2 7 0 234.504 187.557 114.148
779 2 4 0 234.646 191.354 114.428
780 2 12 0 237.618 189.505 115.935
781 2 20 0 239.763 187.917 113.215
782 2 11 0 237.441 190.362 111.439
783 2 17 0 240.085 192.747 110.083
784 2 20 0 240.277 191.43 106.513
785 2 7 0 238.298 192.423 103.412
786 2 15 0 238.017 196.219 103.566
787 2 10 0 241.459 197.851 103.492
788 2 14 0 243.481 195.822 100.98
789 2 15 0 241.125 192.837 100.733
790 2 15 0 238.859 193.037 97.678
791 2 15 0 235.336 192.108 96.563
792 2 18 0 236.299 190.822 100.017
793 2 20 0 232.628 191.828 99.849
794 2 4 0 231.363 194.218 97.165
795 2 17 0 232.653 193.832 93.601
796 2 7 0 230.777 195.047 90.516
797 2 18 0 231.26 193.355 87.136
798 2 8 0 232.033 196.383 84.957
799 2 17 0 231.176 199.741 83.374
800 2 4 0 231.757 201.362 79.974
801 2 7 0 234.767 202.052 77.742
802 2 17 0 236.994 204.732 76.201
803 2 11 0 233.414 205.567 75.204
804 2 11 0 232.984 207.98 72.287
805 2 9 0 231.75 209.891 75.342
806 2 12 0 228.825 208.071 76.97
807 2 17 0 228.072 210.834 74.456
808 2 13 0 226.982 211.951 70.981
809 2 15 0 225.625 208.897 69.151
810 2 18 0 224.783 208.388 72.831
811 2 12 0 222.622 211.341 71.767
812 2 18 0 224.132 214.825 71.447
813 2 16 0 225.665 217.59 73.573
814 2 15 0 221.86 217.674 73.399
815 2 20 0 219.536 217.557 70.383
816 2 18 0 220.083 217.381 66.617
817 2 20 0 218.252 214.104 65.963
818 2 15 0 218.964 210.752 67.629
819 2 12 0 221.627 213.343 68.471
820 2 18 0 225.216 213.309 67.195
821 2 20 0 228.972 212.718 67.437
822 2 9 0 228.165 216.115 68.96
823 2 7 0 229.587 215.93 72.49
824 2 17 0 228.527 215.016 76.033
825 2 20 0 224.859 214.0 75.886
826 2 4 0 225.052 215.604 79.336
827 2 7 0 227.741 216.524 81.875
828 2 6 0 226.008 218.881 84.315
829 2 15 0 223.307 220.623 86.361
830 2 12 0 220.173 218.568 85.673
831 2 5 0 218.754 219.007 89.182
832 2 15 0 215.87 218.975 86.694
833 2 3 0 215.528 219.247 82.909
834 2 15 0 214.491 222.818 82.078
835 2 6 0 218.209 222.778 82.91
836 2 8 0 220.595 222.261 79.985
837 2 18 0 223.604 222.536 77.665
838 2 16 0 224.642 225.934 76.289
839 2 10 0 221.254 226.446 77.956
840 2 17 0 224.026 226.581 80.566
841 2 15 0 226.494 223.696 80.246
842 2 15 0 228.717 223.548 83.337
843 2 18 0 230.214 220.363 81.878
844 2 17 0 230.846 220.846 78.152
845 2 11 0 230.331 219.584 74.593
846 2 20 0 232.0 223.0 74.838
847 2 18 0 233.834 225.786 72.997
848 2 10 0 233.858 226.009 76.8
849 2 12 0 233.653 224.379 80.237
850 2 3 0 232.019 227.776 79.684
851 2 12 0 234.174 230.394 77.944
852 2 14 0 236.366 233.299 79.07
853 2 17 0 237.755 234.514 82.404
854 2 17 0 238.202 233.026 85.883
855 2 2 0 234.732 231.458 85.787
856 2 17 0 232.182 233.823 84.232
857 2 15 0 231.714 231.349 81.374
858 2 4 0 230.422 228.838 83.932
859 2 3 0 231.46 230.012 87.404
860 2 9 0 232.742 232.155 90.282
861 2 3 0 233.114 233.106 93.953
862 2 3 0 236.558 231.758 93.039
863 2 11 0 239.246 234.351 93.794
864 2 18 0 239.786 231.45 96.204
865 2 15 0 240.498 230.188 99.727
866 2 8 0 238.56 226.929 100.101
867 2 17 0 237.74 228.289 103.564
868 2 18 0 241.177 227.307 104.883
869 2 17 0 243.391 228.73 102.128
870 2 9 0 243.023 225.838 99.675
871 2 11 0 246.601 225.566 100.955
872 2 15 0 249.025 228.408 101.706
873 2 16 0 249.965 231.89 102.933
874 2 15 0 249.712 235.11 100.912
875 2 11 0 247.108 233.344 98.763
876 2 15 0 247.32 236.041 96.081
877 2 15 0 246.383 239.626 95.197
878 2 15 0 243.848 242.226 96.353
879 2 16 0 243.046 241.103 99.904
880 2 15 0 240.573 238.739 98.229
881 2 14 0 239.923 242.298 97.034
882 2 14 0 238.234 239.706 94.81
883 2 12 0 234.821 241.36 95.172
884 2 18 0 234.493 242.446 91.535
885 2 3 0 232.115 242.019 88.59
886 2 3 0 228.371 241.562 88.051
887 2 5 0 226.077 238.821 89.373
888 2 15 0 222.618 237.985 90.735
889 2 17 0 222.503 240.408 87.796
890 2 1 0 221.226 243.341 89.867
891 2 2 0 219.825 240.671 92.197